# Time    FlameHeight  
0.00140845  0  0  
0.00338028  0  0  
0.00614085  0  0  
0.00989521  0  0  
0.014901  0  0  
0.0214471  0  0.00833333  
0.0301752  0  0.00833333  
0.0418127  0  0.00833333  
0.0534501  0  0.025  
0.0650876  0.00833333  0.025  
0.0767251  0.00833333  0.025  
0.0883625  0.00833333  0.0416667  
0.1  0.025  0.0416667  
0.1125  0.025  0.0416667  
0.127083  0.025  0.0583333  
0.141667  0.025  0.0583333  
0.151389  0.025  0.0583333  
0.161111  0.0416667  0.0583333  
0.170833  0.0416667  0.075  
0.180556  0.0416667  0.075  
0.185417  0.0416667  0.075  
0.190278  0.0416667  0.075  
0.195139  0.0416667  0.075  
0.2  0.0583333  0.075  
0.20625  0.0583333  0.075  
0.213462  0.0583333  0.0916667  
0.21887  0.0583333  0.0916667  
0.225631  0.0583333  0.0916667  
0.230279  0.0583333  0.0916667  
0.236089  0.075  0.0916667  
0.24035  0.075  0.0916667  
0.245773  0.075  0.108333  
0.249944  0.075  0.108333  
0.25495  0.075  0.108333  
0.259045  0.0916667  0.108333  
0.263596  0.0916667  0.108333  
0.268146  0.0916667  0.108333  
0.272697  0.0916667  0.125  
0.277247  0.0916667  0.125  
0.281798  0.108333  0.125  
0.284831  0.108333  0.125  
0.287865  0.108333  0.125  
0.290899  0.108333  0.125  
0.293933  0.108333  0.141667  
0.296966  0.108333  0.141667  
0.3  0.108333  0.141667  
0.304  0.125  0.141667  
0.308  0.125  0.141667  
0.312  0.125  0.141667  
0.315667  0.125  0.141667  
0.319683  0.125  0.158333  
0.323333  0.125  0.158333  
0.326984  0.141667  0.158333  
0.330635  0.141667  0.158333  
0.334286  0.141667  0.158333  
0.337571  0.141667  0.158333  
0.341244  0.141667  0.175  
0.344508  0.141667  0.175  
0.348207  0.158333  0.175  
0.351444  0.158333  0.175  
0.355179  0.158333  0.175  
0.358381  0.158333  0.175  
0.362165  0.158333  0.191667  
0.365317  0.158333  0.191667  
0.368786  0.175  0.191667  
0.372254  0.175  0.191667  
0.375722  0.175  0.191667  
0.37919  0.175  0.191667  
0.381792  0.175  0.208333  
0.384826  0.175  0.208333  
0.387861  0.191667  0.208333  
0.390896  0.191667  0.208333  
0.393931  0.191667  0.208333  
0.396965  0.191667  0.208333  
0.4  0.191667  0.225  
0.403226  0.191667  0.225  
0.40625  0.208333  0.225  
0.409274  0.208333  0.225  
0.412298  0.208333  0.225  
0.415323  0.208333  0.225  
0.418145  0.208333  0.241667  
0.421177  0.225  0.241667  
0.423804  0.225  0.241667  
0.426626  0.225  0.241667  
0.429247  0.225  0.241667  
0.432077  0.225  0.241667  
0.434689  0.225  0.258333  
0.437411  0.241667  0.258333  
0.439914  0.241667  0.258333  
0.442645  0.241667  0.258333  
0.44494  0.241667  0.258333  
0.447693  0.241667  0.258333  
0.449967  0.241667  0.275  
0.452746  0.258333  0.275  
0.454997  0.258333  0.275  
0.457497  0.258333  0.275  
0.459734  0.258333  0.275  
0.46225  0.258333  0.275  
0.464471  0.258333  0.291667  
0.467009  0.258333  0.291667  
0.469208  0.275  0.291667  
0.471577  0.275  0.291667  
0.473607  0.275  0.291667  
0.476006  0.275  0.291667  
0.478006  0.275  0.291667  
0.48045  0.275  0.308333  
0.482405  0.275  0.308333  
0.484604  0.291667  0.308333  
0.486804  0.291667  0.308333  
0.489003  0.291667  0.308333  
0.491202  0.291667  0.308333  
0.493402  0.291667  0.325  
0.495601  0.291667  0.325  
0.497801  0.308333  0.325  
0.498534  0.308333  0.325  
0.499267  0.308333  0.325  
0.5  0.308333  0.325  
0.501042  0.308333  0.325  
0.502497  0.308333  0.325  
0.504447  0.308333  0.325  
0.506669  0.308333  0.325  
0.508698  0.308333  0.341667  
0.510925  0.308333  0.341667  
0.512861  0.325  0.341667  
0.51504  0.325  0.341667  
0.517016  0.325  0.341667  
0.519199  0.325  0.341667  
0.52117  0.325  0.341667  
0.523245  0.325  0.358333  
0.525213  0.325  0.358333  
0.527181  0.341667  0.358333  
0.529261  0.341667  0.358333  
0.531226  0.341667  0.358333  
0.53331  0.341667  0.358333  
0.535163  0.341667  0.358333  
0.537254  0.341667  0.375  
0.5391  0.341667  0.375  
0.5412  0.358333  0.375  
0.543037  0.358333  0.375  
0.545147  0.358333  0.375  
0.546976  0.358333  0.375  
0.548939  0.358333  0.391667  
0.550763  0.358333  0.391667  
0.552732  0.358333  0.391667  
0.55455  0.375  0.391667  
0.556527  0.375  0.391667  
0.558338  0.375  0.391667  
0.560322  0.375  0.391667  
0.562125  0.375  0.408333  
0.564119  0.375  0.408333  
0.565913  0.375  0.408333  
0.567918  0.391667  0.408333  
0.569606  0.391667  0.408333  
0.571506  0.391667  0.408333  
0.573182  0.391667  0.408333  
0.575098  0.391667  0.425  
0.576758  0.391667  0.425  
0.578695  0.391667  0.425  
0.580334  0.408333  0.425  
0.5823  0.408333  0.425  
0.583909  0.408333  0.425  
0.585697  0.408333  0.425  
0.587485  0.408333  0.441667  
0.589273  0.408333  0.441667  
0.590614  0.408333  0.441667  
0.592178  0.425  0.441667  
0.593743  0.425  0.441667  
0.595307  0.425  0.441667  
0.596871  0.425  0.441667  
0.598436  0.425  0.441667  
0.6  0.425  0.458333  
0.601887  0.425  0.458333  
0.603469  0.441667  0.458333  
0.605362  0.441667  0.458333  
0.606939  0.441667  0.458333  
0.608801  0.441667  0.458333  
0.610346  0.441667  0.475  
0.612176  0.441667  0.475  
0.613744  0.441667  0.475  
0.615579  0.458333  0.475  
0.617114  0.458333  0.475  
0.618916  0.458333  0.475  
0.620446  0.458333  0.475  
