/*--------------------------------*- C++ -*----------------------------------*\
| =========                 |                                                 |
| \\      /  F ield         | OpenFOAM: The Open Source CFD Toolbox           |
|  \\    /   O peration     | Version:  dev                                   |
|   \\  /    A nd           | Web:      www.OpenFOAM.org                      |
|    \\/     M anipulation  |                                                 |
\*---------------------------------------------------------------------------*/
FoamFile
{
    version     2.0;
    format      ascii;
    class       volScalarField;
    location    "0";
    object      ph_rgh;
}
// * * * * * * * * * * * * * * * * * * * * * * * * * * * * * * * * * * * * * //

dimensions      [1 -1 -2 0 0 0 0];

internalField   nonuniform List<scalar> 
800
(
-0.00266466
-0.00266466
-0.00266466
-0.00266466
-0.00266466
-0.00266466
-0.00266466
-0.00266466
-0.00266466
-0.00266466
-0.00266466
-0.00266466
-0.00266466
-0.00266466
-0.00266467
-0.00266467
-0.00266467
-0.00266467
-0.00266467
-0.00266467
-0.00253138
-0.00253138
-0.00253138
-0.00253138
-0.00253138
-0.00253138
-0.00253138
-0.00253138
-0.00253138
-0.00253138
-0.00253138
-0.00253138
-0.00253138
-0.00253138
-0.00253139
-0.00253139
-0.00253139
-0.00253139
-0.00253139
-0.00253139
-0.00240152
-0.00240152
-0.00240152
-0.00240152
-0.00240152
-0.00240152
-0.00240152
-0.00240152
-0.00240152
-0.00240152
-0.00240152
-0.00240152
-0.00240152
-0.00240152
-0.00240153
-0.00240153
-0.00240153
-0.00240153
-0.00240153
-0.00240153
-0.00227508
-0.00227508
-0.00227508
-0.00227508
-0.00227508
-0.00227508
-0.00227508
-0.00227508
-0.00227508
-0.00227508
-0.00227508
-0.00227508
-0.00227508
-0.00227508
-0.00227508
-0.00227508
-0.00227509
-0.00227509
-0.00227509
-0.00227509
-0.00215205
-0.00215205
-0.00215205
-0.00215205
-0.00215206
-0.00215206
-0.00215206
-0.00215206
-0.00215206
-0.00215206
-0.00215206
-0.00215206
-0.00215206
-0.00215206
-0.00215206
-0.00215206
-0.00215206
-0.00215206
-0.00215206
-0.00215207
-0.00203245
-0.00203245
-0.00203245
-0.00203245
-0.00203245
-0.00203245
-0.00203245
-0.00203245
-0.00203246
-0.00203246
-0.00203246
-0.00203246
-0.00203246
-0.00203246
-0.00203246
-0.00203246
-0.00203246
-0.00203246
-0.00203246
-0.00203246
-0.00191627
-0.00191627
-0.00191627
-0.00191627
-0.00191627
-0.00191627
-0.00191627
-0.00191627
-0.00191627
-0.00191627
-0.00191627
-0.00191627
-0.00191627
-0.00191628
-0.00191628
-0.00191628
-0.00191628
-0.00191628
-0.00191628
-0.00191628
-0.0018035
-0.0018035
-0.00180351
-0.00180351
-0.00180351
-0.00180351
-0.00180351
-0.00180351
-0.00180351
-0.00180351
-0.00180351
-0.00180351
-0.00180351
-0.00180351
-0.00180351
-0.00180351
-0.00180351
-0.00180351
-0.00180352
-0.00180352
-0.00169416
-0.00169416
-0.00169416
-0.00169416
-0.00169416
-0.00169416
-0.00169416
-0.00169416
-0.00169416
-0.00169416
-0.00169416
-0.00169417
-0.00169417
-0.00169417
-0.00169417
-0.00169417
-0.00169417
-0.00169417
-0.00169417
-0.00169417
-0.00158823
-0.00158823
-0.00158823
-0.00158823
-0.00158824
-0.00158824
-0.00158824
-0.00158824
-0.00158824
-0.00158824
-0.00158824
-0.00158824
-0.00158824
-0.00158824
-0.00158824
-0.00158824
-0.00158824
-0.00158824
-0.00158824
-0.00158825
-0.00148573
-0.00148573
-0.00148573
-0.00148573
-0.00148573
-0.00148573
-0.00148573
-0.00148573
-0.00148573
-0.00148573
-0.00148573
-0.00148573
-0.00148573
-0.00148573
-0.00148574
-0.00148574
-0.00148574
-0.00148574
-0.00148574
-0.00148574
-0.00138664
-0.00138664
-0.00138664
-0.00138664
-0.00138664
-0.00138664
-0.00138664
-0.00138664
-0.00138664
-0.00138664
-0.00138664
-0.00138665
-0.00138665
-0.00138665
-0.00138665
-0.00138665
-0.00138665
-0.00138665
-0.00138665
-0.00138665
-0.00129097
-0.00129097
-0.00129097
-0.00129097
-0.00129097
-0.00129097
-0.00129097
-0.00129097
-0.00129097
-0.00129097
-0.00129098
-0.00129098
-0.00129098
-0.00129098
-0.00129098
-0.00129098
-0.00129098
-0.00129098
-0.00129098
-0.00129098
-0.00119872
-0.00119872
-0.00119872
-0.00119872
-0.00119872
-0.00119872
-0.00119872
-0.00119872
-0.00119872
-0.00119872
-0.00119873
-0.00119873
-0.00119873
-0.00119873
-0.00119873
-0.00119873
-0.00119873
-0.00119873
-0.00119873
-0.00119873
-0.00110989
-0.00110989
-0.00110989
-0.00110989
-0.00110989
-0.00110989
-0.00110989
-0.00110989
-0.00110989
-0.00110989
-0.00110989
-0.00110989
-0.0011099
-0.0011099
-0.0011099
-0.0011099
-0.0011099
-0.0011099
-0.0011099
-0.0011099
-0.00102448
-0.00102448
-0.00102448
-0.00102448
-0.00102448
-0.00102448
-0.00102448
-0.00102448
-0.00102448
-0.00102448
-0.00102448
-0.00102448
-0.00102448
-0.00102448
-0.00102448
-0.00102448
-0.00102449
-0.00102449
-0.00102449
-0.00102449
-0.000942484
-0.000942484
-0.000942484
-0.000942484
-0.000942484
-0.000942485
-0.000942485
-0.000942486
-0.000942486
-0.000942487
-0.000942488
-0.000942488
-0.000942489
-0.00094249
-0.00094249
-0.000942491
-0.000942492
-0.000942492
-0.000942492
-0.000942493
-0.000863908
-0.000863908
-0.000863909
-0.000863909
-0.000863909
-0.000863909
-0.00086391
-0.00086391
-0.000863911
-0.000863911
-0.000863912
-0.000863913
-0.000863913
-0.000863914
-0.000863915
-0.000863915
-0.000863916
-0.000863916
-0.000863917
-0.000863917
-0.000788752
-0.000788752
-0.000788752
-0.000788752
-0.000788752
-0.000788753
-0.000788753
-0.000788753
-0.000788754
-0.000788755
-0.000788755
-0.000788756
-0.000788756
-0.000788757
-0.000788758
-0.000788758
-0.000788759
-0.000788759
-0.000788759
-0.00078876
-0.000717013
-0.000717013
-0.000717013
-0.000717013
-0.000717014
-0.000717014
-0.000717014
-0.000717015
-0.000717015
-0.000717016
-0.000717016
-0.000717017
-0.000717018
-0.000717018
-0.000717019
-0.000717019
-0.00071702
-0.00071702
-0.000717021
-0.000717021
-0.000648693
-0.000648693
-0.000648693
-0.000648693
-0.000648693
-0.000648694
-0.000648694
-0.000648695
-0.000648695
-0.000648696
-0.000648696
-0.000648697
-0.000648697
-0.000648698
-0.000648698
-0.000648699
-0.0006487
-0.0006487
-0.0006487
-0.000648701
-0.000583791
-0.000583791
-0.000583791
-0.000583791
-0.000583791
-0.000583792
-0.000583792
-0.000583793
-0.000583793
-0.000583794
-0.000583794
-0.000583795
-0.000583795
-0.000583796
-0.000583796
-0.000583797
-0.000583797
-0.000583798
-0.000583798
-0.000583798
-0.000522307
-0.000522307
-0.000522307
-0.000522307
-0.000522308
-0.000522308
-0.000522308
-0.000522309
-0.000522309
-0.00052231
-0.00052231
-0.000522311
-0.000522311
-0.000522312
-0.000522312
-0.000522313
-0.000522313
-0.000522314
-0.000522314
-0.000522314
-0.000464241
-0.000464241
-0.000464241
-0.000464242
-0.000464242
-0.000464242
-0.000464243
-0.000464243
-0.000464243
-0.000464244
-0.000464244
-0.000464245
-0.000464245
-0.000464246
-0.000464246
-0.000464247
-0.000464247
-0.000464247
-0.000464248
-0.000464248
-0.000409594
-0.000409594
-0.000409594
-0.000409594
-0.000409594
-0.000409594
-0.000409595
-0.000409595
-0.000409596
-0.000409596
-0.000409596
-0.000409597
-0.000409597
-0.000409598
-0.000409598
-0.000409599
-0.000409599
-0.0004096
-0.0004096
-0.0004096
-0.000358364
-0.000358364
-0.000358364
-0.000358364
-0.000358364
-0.000358365
-0.000358365
-0.000358365
-0.000358366
-0.000358366
-0.000358366
-0.000358367
-0.000358367
-0.000358368
-0.000358368
-0.000358369
-0.000358369
-0.000358369
-0.00035837
-0.00035837
-0.000310552
-0.000310552
-0.000310552
-0.000310552
-0.000310552
-0.000310553
-0.000310553
-0.000310553
-0.000310554
-0.000310554
-0.000310554
-0.000310555
-0.000310555
-0.000310556
-0.000310556
-0.000310556
-0.000310557
-0.000310557
-0.000310557
-0.000310558
-0.000266158
-0.000266158
-0.000266158
-0.000266158
-0.000266158
-0.000266158
-0.000266159
-0.000266159
-0.000266159
-0.00026616
-0.00026616
-0.00026616
-0.000266161
-0.000266161
-0.000266162
-0.000266162
-0.000266162
-0.000266162
-0.000266163
-0.000266163
-0.000225181
-0.000225181
-0.000225181
-0.000225181
-0.000225182
-0.000225182
-0.000225182
-0.000225182
-0.000225183
-0.000225183
-0.000225183
-0.000225184
-0.000225184
-0.000225184
-0.000225185
-0.000225185
-0.000225186
-0.000225186
-0.000225186
-0.000225186
-0.000187622
-0.000187622
-0.000187622
-0.000187623
-0.000187623
-0.000187623
-0.000187623
-0.000187623
-0.000187624
-0.000187624
-0.000187624
-0.000187625
-0.000187625
-0.000187625
-0.000187626
-0.000187626
-0.000187626
-0.000187626
-0.000187627
-0.000187627
-0.000153481
-0.000153481
-0.000153481
-0.000153481
-0.000153481
-0.000153482
-0.000153482
-0.000153482
-0.000153482
-0.000153483
-0.000153483
-0.000153483
-0.000153484
-0.000153484
-0.000153484
-0.000153484
-0.000153485
-0.000153485
-0.000153485
-0.000153486
-0.000122757
-0.000122757
-0.000122757
-0.000122757
-0.000122758
-0.000122758
-0.000122758
-0.000122758
-0.000122758
-0.000122759
-0.000122759
-0.000122759
-0.00012276
-0.00012276
-0.00012276
-0.00012276
-0.000122761
-0.000122761
-0.000122761
-0.000122761
-9.54511e-05
-9.54509e-05
-9.5451e-05
-9.54511e-05
-9.54512e-05
-9.54514e-05
-9.54516e-05
-9.54518e-05
-9.5452e-05
-9.54522e-05
-9.54525e-05
-9.54527e-05
-9.5453e-05
-9.54532e-05
-9.54535e-05
-9.54537e-05
-9.5454e-05
-9.54543e-05
-9.54541e-05
-9.54547e-05
-7.15614e-05
-7.15616e-05
-7.15618e-05
-7.15619e-05
-7.15621e-05
-7.15622e-05
-7.15624e-05
-7.15626e-05
-7.15628e-05
-7.1563e-05
-7.15632e-05
-7.15635e-05
-7.15637e-05
-7.15639e-05
-7.15642e-05
-7.15644e-05
-7.15646e-05
-7.15646e-05
-7.15652e-05
-7.15649e-05
-5.109e-05
-5.10899e-05
-5.109e-05
-5.10901e-05
-5.10902e-05
-5.10904e-05
-5.10905e-05
-5.10907e-05
-5.10909e-05
-5.10911e-05
-5.10913e-05
-5.10915e-05
-5.10917e-05
-5.10919e-05
-5.10921e-05
-5.10922e-05
-5.10925e-05
-5.10927e-05
-5.10924e-05
-5.1093e-05
-3.40348e-05
-3.4035e-05
-3.40352e-05
-3.40354e-05
-3.40355e-05
-3.40357e-05
-3.40358e-05
-3.4036e-05
-3.40361e-05
-3.40363e-05
-3.40364e-05
-3.40366e-05
-3.40368e-05
-3.40369e-05
-3.40371e-05
-3.40373e-05
-3.40374e-05
-3.40374e-05
-3.4038e-05
-3.40376e-05
-2.03977e-05
-2.03976e-05
-2.03976e-05
-2.03978e-05
-2.03979e-05
-2.0398e-05
-2.03981e-05
-2.03983e-05
-2.03984e-05
-2.03985e-05
-2.03986e-05
-2.03988e-05
-2.03989e-05
-2.0399e-05
-2.03992e-05
-2.03993e-05
-2.03995e-05
-2.03997e-05
-2.03993e-05
-2.03999e-05
-1.0177e-05
-1.01771e-05
-1.01772e-05
-1.01773e-05
-1.01774e-05
-1.01775e-05
-1.01776e-05
-1.01777e-05
-1.01778e-05
-1.01779e-05
-1.0178e-05
-1.0178e-05
-1.01781e-05
-1.01782e-05
-1.01783e-05
-1.01785e-05
-1.01785e-05
-1.01785e-05
-1.01791e-05
-1.0179e-05
-3.37335e-06
-3.37344e-06
-3.37352e-06
-3.37359e-06
-3.37366e-06
-3.37372e-06
-3.37378e-06
-3.37384e-06
-3.37389e-06
-3.37395e-06
-3.374e-06
-3.37406e-06
-3.37411e-06
-3.37417e-06
-3.37423e-06
-3.3743e-06
-3.37439e-06
-3.37465e-06
-3.37452e-06
-3.37428e-06
1.4275e-08
1.42448e-08
1.42152e-08
1.41898e-08
1.41673e-08
1.41466e-08
1.4127e-08
1.41081e-08
1.40895e-08
1.4071e-08
1.40527e-08
1.40344e-08
1.40162e-08
1.39975e-08
1.39783e-08
1.39537e-08
1.3923e-08
1.3936e-08
1.40086e-08
1.4113e-08
)
;

boundaryField
{
    solid
    {
        type            fixedFluxPressure;
        gradient        uniform -0;
        value           nonuniform List<scalar> 
30
(
-0.00266466
-0.00253138
-0.00129097
-0.00119872
-0.00110989
-0.00102448
-0.000942484
-0.000863908
-0.000788752
-0.000717013
-0.000648693
-0.000583791
-0.000522307
-0.000464241
-0.000409594
-0.000358364
-0.000310552
-0.000266158
-0.000225181
-0.000187622
-0.000153481
-0.000122757
-9.54511e-05
-7.15614e-05
-5.109e-05
-3.40348e-05
-2.03977e-05
-1.0177e-05
-3.37335e-06
1.4275e-08
)
;
    }
    side
    {
        type            fixedFluxPressure;
        gradient        uniform -0;
        value           nonuniform List<scalar> 
40
(
-0.00266467
-0.00253139
-0.00240153
-0.00227509
-0.00215207
-0.00203246
-0.00191628
-0.00180352
-0.00169417
-0.00158825
-0.00148574
-0.00138665
-0.00129098
-0.00119873
-0.0011099
-0.00102449
-0.000942493
-0.000863917
-0.00078876
-0.000717021
-0.000648701
-0.000583798
-0.000522314
-0.000464248
-0.0004096
-0.00035837
-0.000310558
-0.000266163
-0.000225186
-0.000187627
-0.000153486
-0.000122761
-9.54547e-05
-7.15649e-05
-5.1093e-05
-3.40376e-05
-2.03999e-05
-1.0179e-05
-3.37428e-06
1.4113e-08
)
;
    }
    frontAndBack
    {
        type            empty;
    }
    outlet
    {
        type            fixedValue;
        value           uniform 0;
    }
    ground
    {
        type            fixedFluxPressure;
        gradient        nonuniform List<scalar> 
16
(
-0.00273398
-0.00273398
-0.00273398
-0.00273398
-0.00273398
-0.00273398
-0.00273398
-0.00273398
-0.00273398
-0.00273398
-0.00273398
-0.00273398
-0.00273398
-0.00273398
-0.00273398
-0.00273398
)
;
        value           nonuniform List<scalar> 
16
(
-0.00273301
-0.00273301
-0.00273301
-0.00273301
-0.00273301
-0.00273301
-0.00273301
-0.00273301
-0.00273301
-0.00273301
-0.00273301
-0.00273302
-0.00273302
-0.00273302
-0.00273302
-0.00273302
)
;
    }
    burner
    {
        type            fixedFluxPressure;
        gradient        nonuniform List<scalar> 4(-284.517 -284.517 -284.517 -284.517);
        value           nonuniform List<scalar> 4(-7.1156 -7.1156 -7.1156 -7.1156);
    }
    region0_to_panelRegion_panel
    {
        type            fixedFluxPressure;
        gradient        nonuniform List<scalar> 10(-266.729 -259.614 -252.5 -245.386 -238.272 -231.158 -224.044 -216.93 -209.817 -202.703);
        value           nonuniform List<scalar> 10(-6.67062 -6.49263 -6.31466 -6.13668 -5.95872 -5.78076 -5.6028 -5.42485 -5.24691 -5.06897);
    }
}


// ************************************************************************* //
